LAMMPS data file via write_data, version 3 Aug 2022, timestep = 0

36000 atoms
18000 bonds
6 atom types
3 bond types

0 38.58389109403 xlo xhi
0 178.21135927616 ylo yhi
0 27.85485 zlo zhi
0 0 0 xy xz yz

Masses

1 6.246
2 83.619
3 14.4
4 0.694
5 9.291
6 1.6

Atoms # full

1 0 1 1 2.5722594062709057 1.4850946606331819 1.6272754058698322 0 0 0
2 0 1 1 0 0 3.9485129058605466 0 0 0
3 0 1 1 38.583891094027095 2.9701893212708192 6.2697504058651905 -1 0 0
4 0 1 1 2.5722594062709057 1.4850946606331819 8.590987905869834 0 0 0
5 0 1 1 0 0 10.912225405860546 0 0 0
6 0 1 1 38.583891094027095 2.9701893212708192 13.233462905865188 -1 0 0
7 0 2 0.978 0 0 0.01613290586773125 0 0 0
8 0 2 0.978 38.583891094027095 2.9701893212708192 2.337370405858446 -1 0 0
9 0 2 0.978 2.5722594062709057 1.4850946606331819 4.6586079058630885 0 0 0
10 0 2 0.978 0 0 6.979845405867731 0 0 0
11 0 2 0.978 38.583891094027095 2.9701893212708192 9.301082905858447 -1 0 0
12 0 2 0.978 2.5722594062709057 1.4850946606331819 11.622320405863091 0 0 0
13 0 3 2.656 1.5808417224440556 3.0910406718993473 0.8929254058607694 0 0 0
14 0 3 2.656 3.2580199277660147 0.05561989432194292 3.2141629058654115 0 0 0
15 0 3 2.656 0.9914176838239177 1.6059460112617103 3.2141629058654115 0 0 0
16 0 3 2.656 3.467340607215067 2.793718076320347 3.2141629058654115 0 0 0
17 0 3 2.656 1.5808417224469609 0.1208513506285286 5.535400405870054 0 0 0
18 0 3 2.656 4.2494376115874 1.308623415687166 5.535400405870054 0 0 0
19 0 3 2.656 1.8864988847706394 3.025809215588306 5.535400405870054 0 0 0
20 0 3 2.656 0.685760521494776 1.5407145549551244 7.856637905860769 0 0 0
21 0 3 2.656 0.8950812009489733 4.278812736953529 7.856637905860769 0 0 0
22 0 3 2.656 1.886498884770973 0.05561989432194292 10.177875405865413 0 0 0
23 0 3 2.656 4.153101128712722 1.6059460112617103 10.177875405865413 0 0 0
24 0 3 2.656 1.6771782053213053 2.793718076320347 10.177875405865413 0 0 0
25 0 3 2.656 3.5636770900900117 0.1208513506285286 12.499112905870057 0 0 0
26 0 3 2.656 0.8950812009493064 1.308623415687166 12.499112905870057 0 0 0
27 0 3 2.656 3.2580199277656816 3.025809215588306 12.499112905870057 0 0 0
28 0 1 1 7.716778218807905 1.4850946606331819 1.6272754058698322 0 0 0
29 0 1 1 5.144518812537 0 3.9485129058605466 0 0 0
30 0 1 1 5.144518812534094 2.9701893212708192 6.2697504058651905 0 0 0
31 0 1 1 7.716778218807905 1.4850946606331819 8.590987905869834 0 0 0
32 0 1 1 5.144518812537 0 10.912225405860546 0 0 0
33 0 1 1 5.144518812534094 2.9701893212708192 13.233462905865188 0 0 0
34 0 2 0.978 5.144518812537 0 0.01613290586773125 0 0 0
35 0 2 0.978 5.144518812534094 2.9701893212708192 2.337370405858446 0 0 0
36 0 2 0.978 7.716778218807905 1.4850946606331819 4.6586079058630885 0 0 0
37 0 2 0.978 5.144518812537 0 6.979845405867731 0 0 0
38 0 2 0.978 5.144518812534094 2.9701893212708192 9.301082905858447 0 0 0
39 0 2 0.978 7.716778218807905 1.4850946606331819 11.622320405863091 0 0 0
40 0 3 2.656 4.458758291041878 1.5407145549551244 0.8929254058607694 0 0 0
41 0 3 2.656 6.725360534981056 3.0910406718993473 0.8929254058607694 0 0 0
42 0 3 2.656 4.249437611587066 4.278812736953529 0.8929254058607694 0 0 0
43 0 3 2.656 8.402538740303015 0.05561989432194292 3.2141629058654115 0 0 0
44 0 3 2.656 6.135936496360919 1.6059460112617103 3.2141629058654115 0 0 0
45 0 3 2.656 8.611859419752069 2.793718076320347 3.2141629058654115 0 0 0
46 0 3 2.656 6.7253605349839605 0.1208513506285286 5.535400405870054 0 0 0
47 0 3 2.656 9.393956424124399 1.308623415687166 5.535400405870054 0 0 0
48 0 3 2.656 7.031017697307641 3.025809215588306 5.535400405870054 0 0 0
49 0 3 2.656 5.830279334031776 1.5407145549551244 7.856637905860769 0 0 0
50 0 3 2.656 3.56367709009225 3.0910406718993473 7.856637905860769 0 0 0
51 0 3 2.656 6.039600013485973 4.278812736953529 7.856637905860769 0 0 0
52 0 3 2.656 7.031017697307973 0.05561989432194292 10.177875405865413 0 0 0
53 0 3 2.656 9.297619941249723 1.6059460112617103 10.177875405865413 0 0 0
54 0 3 2.656 6.8216970178583045 2.793718076320347 10.177875405865413 0 0 0
55 0 3 2.656 8.708195902627013 0.1208513506285286 12.499112905870057 0 0 0
56 0 3 2.656 6.039600013486306 1.308623415687166 12.499112905870057 0 0 0
57 0 3 2.656 8.402538740302681 3.025809215588306 12.499112905870057 0 0 0
58 0 1 1 12.861297031344906 1.4850946606331819 1.6272754058698322 0 0 0
59 0 1 1 10.289037625074 0 3.9485129058605466 0 0 0
60 0 1 1 10.289037625071096 2.9701893212708192 6.2697504058651905 0 0 0
61 0 1 1 12.861297031344906 1.4850946606331819 8.590987905869834 0 0 0
62 0 1 1 10.289037625074 0 10.912225405860546 0 0 0
63 0 1 1 10.289037625071096 2.9701893212708192 13.233462905865188 0 0 0
64 0 2 0.978 10.289037625074 0 0.01613290586773125 0 0 0
65 0 2 0.978 10.289037625071096 2.9701893212708192 2.337370405858446 0 0 0
66 0 2 0.978 12.861297031344906 1.4850946606331819 4.6586079058630885 0 0 0
67 0 2 0.978 10.289037625074 0 6.979845405867731 0 0 0
68 0 2 0.978 10.289037625071096 2.9701893212708192 9.301082905858447 0 0 0
69 0 2 0.978 12.861297031344906 1.4850946606331819 11.622320405863091 0 0 0
70 0 3 2.656 9.603277103578879 1.5407145549551244 0.8929254058607694 0 0 0
71 0 3 2.656 11.869879347518056 3.0910406718993473 0.8929254058607694 0 0 0
72 0 3 2.656 9.393956424124067 4.278812736953529 0.8929254058607694 0 0 0
73 0 3 2.656 13.547057552840016 0.05561989432194292 3.2141629058654115 0 0 0
74 0 3 2.656 11.280455308897917 1.6059460112617103 3.2141629058654115 0 0 0
75 0 3 2.656 13.756378232289066 2.793718076320347 3.2141629058654115 0 0 0
76 0 3 2.656 11.869879347520962 0.1208513506285286 5.535400405870054 0 0 0
77 0 3 2.656 14.538475236661402 1.308623415687166 5.535400405870054 0 0 0
78 0 3 2.656 12.17553650984464 3.025809215588306 5.535400405870054 0 0 0
79 0 3 2.656 10.974798146568777 1.5407145549551244 7.856637905860769 0 0 0
80 0 3 2.656 8.708195902629253 3.0910406718993473 7.856637905860769 0 0 0
81 0 3 2.656 11.184118826022974 4.278812736953529 7.856637905860769 0 0 0
82 0 3 2.656 12.175536509844973 0.05561989432194292 10.177875405865413 0 0 0
83 0 3 2.656 14.442138753786722 1.6059460112617103 10.177875405865413 0 0 0
84 0 3 2.656 11.966215830395305 2.793718076320347 10.177875405865413 0 0 0
85 0 3 2.656 13.852714715164012 0.1208513506285286 12.499112905870057 0 0 0
86 0 3 2.656 11.184118826023306 1.308623415687166 12.499112905870057 0 0 0
87 0 3 2.656 13.547057552839684 3.025809215588306 12.499112905870057 0 0 0
88 0 1 1 18.005815843881905 1.4850946606331819 1.6272754058698322 0 0 0
89 0 1 1 15.433556437611 0 3.9485129058605466 0 0 0
90 0 1 1 15.433556437608093 2.9701893212708192 6.2697504058651905 0 0 0
91 0 1 1 18.005815843881905 1.4850946606331819 8.590987905869834 0 0 0
92 0 1 1 15.433556437611 0 10.912225405860546 0 0 0
93 0 1 1 15.433556437608093 2.9701893212708192 13.233462905865188 0 0 0
94 0 2 0.978 15.433556437611 0 0.01613290586773125 0 0 0
95 0 2 0.978 15.433556437608093 2.9701893212708192 2.337370405858446 0 0 0
96 0 2 0.978 18.005815843881905 1.4850946606331819 4.6586079058630885 0 0 0
97 0 2 0.978 15.433556437611 0 6.979845405867731 0 0 0
98 0 2 0.978 15.433556437608093 2.9701893212708192 9.301082905858447 0 0 0
99 0 2 0.978 18.005815843881905 1.4850946606331819 11.622320405863091 0 0 0
100 0 3 2.656 14.747795916115878 1.5407145549551244 0.8929254058607694 0 0 0
101 0 3 2.656 17.014398160055055 3.0910406718993473 0.8929254058607694 0 0 0
102 0 3 2.656 14.538475236661068 4.278812736953529 0.8929254058607694 0 0 0
103 0 3 2.656 18.691576365377017 0.05561989432194292 3.2141629058654115 0 0 0
104 0 3 2.656 16.424974121434918 1.6059460112617103 3.2141629058654115 0 0 0
105 0 3 2.656 18.90089704482607 2.793718076320347 3.2141629058654115 0 0 0
106 0 3 2.656 17.01439816005796 0.1208513506285286 5.535400405870054 0 0 0
107 0 3 2.656 19.6829940491984 1.308623415687166 5.535400405870054 0 0 0
108 0 3 2.656 17.32005532238164 3.025809215588306 5.535400405870054 0 0 0
109 0 3 2.656 16.119316959105777 1.5407145549551244 7.856637905860769 0 0 0
110 0 3 2.656 13.85271471516625 3.0910406718993473 7.856637905860769 0 0 0
111 0 3 2.656 16.328637638559975 4.278812736953529 7.856637905860769 0 0 0
112 0 3 2.656 17.320055322381975 0.05561989432194292 10.177875405865413 0 0 0
113 0 3 2.656 19.586657566323723 1.6059460112617103 10.177875405865413 0 0 0
114 0 3 2.656 17.110734642932307 2.793718076320347 10.177875405865413 0 0 0
115 0 3 2.656 18.997233527701013 0.1208513506285286 12.499112905870057 0 0 0
116 0 3 2.656 16.328637638560306 1.308623415687166 12.499112905870057 0 0 0
117 0 3 2.656 18.691576365376683 3.025809215588306 12.499112905870057 0 0 0
118 0 1 1 23.150334656418902 1.4850946606331819 1.6272754058698322 0 0 0
119 0 1 1 20.578075250148 0 3.9485129058605466 0 0 0
120 0 1 1 20.578075250145094 2.9701893212708192 6.2697504058651905 0 0 0
121 0 1 1 23.150334656418902 1.4850946606331819 8.590987905869834 0 0 0
122 0 1 1 20.578075250148 0 10.912225405860546 0 0 0
123 0 1 1 20.578075250145094 2.9701893212708192 13.233462905865188 0 0 0
124 0 2 0.978 20.578075250148 0 0.01613290586773125 0 0 0
125 0 2 0.978 20.578075250145094 2.9701893212708192 2.337370405858446 0 0 0
126 0 2 0.978 23.150334656418902 1.4850946606331819 4.6586079058630885 0 0 0
127 0 2 0.978 20.578075250148 0 6.979845405867731 0 0 0
128 0 2 0.978 20.578075250145094 2.9701893212708192 9.301082905858447 0 0 0
129 0 2 0.978 23.150334656418902 1.4850946606331819 11.622320405863091 0 0 0
130 0 3 2.656 19.89231472865288 1.5407145549551244 0.8929254058607694 0 0 0
131 0 3 2.656 22.158916972592056 3.0910406718993473 0.8929254058607694 0 0 0
132 0 3 2.656 19.68299404919807 4.278812736953529 0.8929254058607694 0 0 0
133 0 3 2.656 23.836095177914018 0.05561989432194292 3.2141629058654115 0 0 0
134 0 3 2.656 21.569492933971915 1.6059460112617103 3.2141629058654115 0 0 0
135 0 3 2.656 24.04541585736307 2.793718076320347 3.2141629058654115 0 0 0
136 0 3 2.656 22.158916972594962 0.1208513506285286 5.535400405870054 0 0 0
137 0 3 2.656 24.8275128617354 1.308623415687166 5.535400405870054 0 0 0
138 0 3 2.656 22.464574134918635 3.025809215588306 5.535400405870054 0 0 0
139 0 3 2.656 21.263835771642775 1.5407145549551244 7.856637905860769 0 0 0
140 0 3 2.656 18.997233527703248 3.0910406718993473 7.856637905860769 0 0 0
141 0 3 2.656 21.473156451096976 4.278812736953529 7.856637905860769 0 0 0
142 0 3 2.656 22.464574134918973 0.05561989432194292 10.177875405865413 0 0 0
143 0 3 2.656 24.731176378860724 1.6059460112617103 10.177875405865413 0 0 0
144 0 3 2.656 22.255253455469308 2.793718076320347 10.177875405865413 0 0 0
145 0 3 2.656 24.14175234023801 0.1208513506285286 12.499112905870057 0 0 0
146 0 3 2.656 21.473156451097307 1.308623415687166 12.499112905870057 0 0 0
147 0 3 2.656 23.836095177913684 3.025809215588306 12.499112905870057 0 0 0
148 0 1 1 28.294853468955907 1.4850946606331819 1.6272754058698322 0 0 0
149 0 1 1 25.722594062685 0 3.9485129058605466 0 0 0
150 0 1 1 25.722594062682095 2.9701893212708192 6.2697504058651905 0 0 0
151 0 1 1 28.294853468955907 1.4850946606331819 8.590987905869834 0 0 0
152 0 1 1 25.722594062685 0 10.912225405860546 0 0 0
153 0 1 1 25.722594062682095 2.9701893212708192 13.233462905865188 0 0 0
154 0 2 0.978 25.722594062685 0 0.01613290586773125 0 0 0
155 0 2 0.978 25.722594062682095 2.9701893212708192 2.337370405858446 0 0 0
156 0 2 0.978 28.294853468955907 1.4850946606331819 4.6586079058630885 0 0 0
157 0 2 0.978 25.722594062685 0 6.979845405867731 0 0 0
158 0 2 0.978 25.722594062682095 2.9701893212708192 9.301082905858447 0 0 0
159 0 2 0.978 28.294853468955907 1.4850946606331819 11.622320405863091 0 0 0
160 0 3 2.656 25.03683354118988 1.5407145549551244 0.8929254058607694 0 0 0
161 0 3 2.656 27.303435785129054 3.0910406718993473 0.8929254058607694 0 0 0
162 0 3 2.656 24.82751286173507 4.278812736953529 0.8929254058607694 0 0 0
163 0 3 2.656 28.98061399045102 0.05561989432194292 3.2141629058654115 0 0 0
164 0 3 2.656 26.71401174650892 1.6059460112617103 3.2141629058654115 0 0 0
165 0 3 2.656 29.18993466990007 2.793718076320347 3.2141629058654115 0 0 0
166 0 3 2.656 27.303435785131963 0.1208513506285286 5.535400405870054 0 0 0
167 0 3 2.656 29.9720316742724 1.308623415687166 5.535400405870054 0 0 0
168 0 3 2.656 27.60909294745564 3.025809215588306 5.535400405870054 0 0 0
169 0 3 2.656 26.40835458417978 1.5407145549551244 7.856637905860769 0 0 0
170 0 3 2.656 24.14175234024025 3.0910406718993473 7.856637905860769 0 0 0
171 0 3 2.656 26.617675263633974 4.278812736953529 7.856637905860769 0 0 0
172 0 3 2.656 27.609092947455974 0.05561989432194292 10.177875405865413 0 0 0
173 0 3 2.656 29.87569519139772 1.6059460112617103 10.177875405865413 0 0 0
174 0 3 2.656 27.39977226800631 2.793718076320347 10.177875405865413 0 0 0
175 0 3 2.656 29.28627115277501 0.1208513506285286 12.499112905870057 0 0 0
176 0 3 2.656 26.617675263634307 1.308623415687166 12.499112905870057 0 0 0
177 0 3 2.656 28.980613990450685 3.025809215588306 12.499112905870057 0 0 0
178 0 1 1 33.43937228149291 1.4850946606331819 1.6272754058698322 0 0 0
179 0 1 1 30.867112875222 0 3.9485129058605466 0 0 0
180 0 1 1 30.867112875219092 2.9701893212708192 6.2697504058651905 0 0 0
181 0 1 1 33.43937228149291 1.4850946606331819 8.590987905869834 0 0 0
182 0 1 1 30.867112875222 0 10.912225405860546 0 0 0
183 0 1 1 30.867112875219092 2.9701893212708192 13.233462905865188 0 0 0
184 0 2 0.978 30.867112875222 0 0.01613290586773125 0 0 0
185 0 2 0.978 30.867112875219092 2.9701893212708192 2.337370405858446 0 0 0
186 0 2 0.978 33.43937228149291 1.4850946606331819 4.6586079058630885 0 0 0
187 0 2 0.978 30.867112875222 0 6.979845405867731 0 0 0
188 0 2 0.978 30.867112875219092 2.9701893212708192 9.301082905858447 0 0 0
189 0 2 0.978 33.43937228149291 1.4850946606331819 11.622320405863091 0 0 0
190 0 3 2.656 30.18135235372688 1.5407145549551244 0.8929254058607694 0 0 0
191 0 3 2.656 32.44795459766606 3.0910406718993473 0.8929254058607694 0 0 0
192 0 3 2.656 29.972031674272067 4.278812736953529 0.8929254058607694 0 0 0
193 0 3 2.656 34.12513280298801 0.05561989432194292 3.2141629058654115 0 0 0
194 0 3 2.656 31.858530559045917 1.6059460112617103 3.2141629058654115 0 0 0
195 0 3 2.656 34.33445348243707 2.793718076320347 3.2141629058654115 0 0 0
196 0 3 2.656 32.44795459766897 0.1208513506285286 5.535400405870054 0 0 0
197 0 3 2.656 35.1165504868094 1.308623415687166 5.535400405870054 0 0 0
198 0 3 2.656 32.75361175999264 3.025809215588306 5.535400405870054 0 0 0
199 0 3 2.656 31.552873396716777 1.5407145549551244 7.856637905860769 0 0 0
200 0 3 2.656 29.28627115277725 3.0910406718993473 7.856637905860769 0 0 0
201 0 3 2.656 31.762194076170978 4.278812736953529 7.856637905860769 0 0 0
202 0 3 2.656 32.75361175999297 0.05561989432194292 10.177875405865413 0 0 0
203 0 3 2.656 35.020214003934726 1.6059460112617103 10.177875405865413 0 0 0
204 0 3 2.656 32.5442910805433 2.793718076320347 10.177875405865413 0 0 0
205 0 3 2.656 34.430789965312016 0.1208513506285286 12.499112905870057 0 0 0
206 0 3 2.656 31.762194076171305 1.308623415687166 12.499112905870057 0 0 0
207 0 3 2.656 34.12513280298768 3.025809215588306 12.499112905870057 0 0 0
208 0 1 1 36.011631687759 0 3.9485129058605466 0 0 0
209 0 1 1 36.01163168775609 2.9701893212708192 6.2697504058651905 0 0 0
210 0 1 1 36.011631687759 0 10.912225405860546 0 0 0
211 0 1 1 36.01163168775609 2.9701893212708192 13.233462905865188 0 0 0
212 0 2 0.978 36.011631687759 0 0.01613290586773125 0 0 0
213 0 2 0.978 36.01163168775609 2.9701893212708192 2.337370405858446 0 0 0
214 0 2 0.978 36.011631687759 0 6.979845405867731 0 0 0
215 0 2 0.978 36.01163168775609 2.9701893212708192 9.301082905858447 0 0 0
216 0 3 2.656 35.32587116626388 1.5407145549551244 0.8929254058607694 0 0 0
217 0 3 2.656 37.592473410203056 3.0910406718993473 0.8929254058607694 0 0 0
218 0 3 2.656 35.11655048680907 4.278812736953529 0.8929254058607694 0 0 0
219 0 3 2.656 37.00304937158292 1.6059460112617103 3.2141629058654115 0 0 0
220 0 3 2.656 37.59247341020597 0.1208513506285286 5.535400405870054 0 0 0
221 0 3 2.656 37.89813057252964 3.025809215588306 5.535400405870054 0 0 0
222 0 3 2.656 36.69739220925378 1.5407145549551244 7.856637905860769 0 0 0
223 0 3 2.656 34.430789965314254 3.0910406718993473 7.856637905860769 0 0 0
224 0 3 2.656 36.90671288870797 4.278812736953529 7.856637905860769 0 0 0
225 0 3 2.656 37.89813057252997 0.05561989432194292 10.177875405865413 0 0 0
226 0 3 2.656 37.688809893080304 2.793718076320347 10.177875405865413 0 0 0
227 0 3 2.656 36.90671288870831 1.308623415687166 12.499112905870057 0 0 0
228 0 1 1 1.9055867994666187e-12 5.940378642537182 1.6272754058698322 0 0 0
229 0 1 1 1.9055867994666187e-12 5.940378642537182 8.590987905869834 0 0 0
230 0 2 0.978 1.9055867994666187e-12 5.940378642537182 4.6586079058630885 0 0 0
231 0 2 0.978 1.9055867994666187e-12 5.940378642537182 11.622320405863091 0 0 0
232 0 3 2.656 0.685760521497015 4.510903876225943 3.2141629058654115 0 0 0
233 0 3 2.656 0.8950812009460671 7.249002058224347 3.2141629058654115 0 0 0
234 0 3 2.656 1.6771782053183997 5.763907397591167 5.535400405870054 0 0 0
235 0 3 2.656 1.5808417224437217 6.0612299931657105 10.177875405865413 0 0 0
236 0 3 2.656 0.9914176838210116 4.576135332532529 12.499112905870057 0 0 0
237 0 3 2.656 0.6857605214966815 7.481093197492306 12.499112905870057 0 0 0
238 0 1 1 5.144518812538905 5.940378642537182 1.6272754058698322 0 0 0
239 0 1 1 2.572259406268 4.455283981904 3.9485129058605466 0 0 0
240 0 1 1 2.5722594062650934 7.42547330317482 6.2697504058651905 0 0 0
241 0 1 1 5.144518812538905 5.940378642537182 8.590987905869834 0 0 0
242 0 1 1 2.572259406268 4.455283981904 10.912225405860546 0 0 0
243 0 1 1 2.5722594062650934 7.42547330317482 13.233462905865188 0 0 0
244 0 2 0.978 2.572259406268 4.455283981904 0.01613290586773125 0 0 0
245 0 2 0.978 2.5722594062650934 7.42547330317482 2.337370405858446 0 0 0
246 0 2 0.978 5.144518812538905 5.940378642537182 4.6586079058630885 0 0 0
247 0 2 0.978 2.572259406268 4.455283981904 6.979845405867731 0 0 0
248 0 2 0.978 2.5722594062650934 7.42547330317482 9.301082905858447 0 0 0
249 0 2 0.978 5.144518812538905 5.940378642537182 11.622320405863091 0 0 0
250 0 3 2.656 1.886498884772878 5.995998536859124 0.8929254058607694 0 0 0
251 0 3 2.656 4.1531011287120565 7.546324653803347 0.8929254058607694 0 0 0
252 0 3 2.656 1.6771782053180662 8.73409671885753 0.8929254058607694 0 0 0
253 0 3 2.656 5.8302793340340155 4.510903876225943 3.2141629058654115 0 0 0
254 0 3 2.656 3.5636770900919186 6.0612299931657105 3.2141629058654115 0 0 0
255 0 3 2.656 6.039600013483069 7.249002058224347 3.2141629058654115 0 0 0
256 0 3 2.656 4.15310112871496 4.576135332532529 5.535400405870054 0 0 0
257 0 3 2.656 6.821697017855399 5.763907397591167 5.535400405870054 0 0 0
258 0 3 2.656 4.458758291038641 7.481093197492306 5.535400405870054 0 0 0
259 0 3 2.656 3.2580199277627755 5.995998536859124 7.856637905860769 0 0 0
260 0 3 2.656 0.9914176838232507 7.546324653803347 7.856637905860769 0 0 0
261 0 3 2.656 3.4673406072169746 8.73409671885753 7.856637905860769 0 0 0
262 0 3 2.656 4.458758291038974 4.510903876225943 10.177875405865413 0 0 0
263 0 3 2.656 6.725360534980723 6.0612299931657105 10.177875405865413 0 0 0
264 0 3 2.656 4.249437611589306 7.249002058224347 10.177875405865413 0 0 0
265 0 3 2.656 6.135936496358013 4.576135332532529 12.499112905870057 0 0 0
266 0 3 2.656 3.4673406072173063 5.763907397591167 12.499112905870057 0 0 0
267 0 3 2.656 5.830279334033681 7.481093197492306 12.499112905870057 0 0 0
268 0 1 1 10.289037625075906 5.940378642537182 1.6272754058698322 0 0 0
269 0 1 1 7.7167782188050005 4.455283981904 3.9485129058605466 0 0 0
270 0 1 1 7.716778218802094 7.42547330317482 6.2697504058651905 0 0 0
271 0 1 1 10.289037625075906 5.940378642537182 8.590987905869834 0 0 0
272 0 1 1 7.7167782188050005 4.455283981904 10.912225405860546 0 0 0
273 0 1 1 7.716778218802094 7.42547330317482 13.233462905865188 0 0 0
274 0 2 0.978 7.7167782188050005 4.455283981904 0.01613290586773125 0 0 0
275 0 2 0.978 7.716778218802094 7.42547330317482 2.337370405858446 0 0 0
276 0 2 0.978 10.289037625075906 5.940378642537182 4.6586079058630885 0 0 0
277 0 2 0.978 7.7167782188050005 4.455283981904 6.979845405867731 0 0 0
278 0 2 0.978 7.716778218802094 7.42547330317482 9.301082905858447 0 0 0
279 0 2 0.978 10.289037625075906 5.940378642537182 11.622320405863091 0 0 0
280 0 3 2.656 7.0310176973098795 5.995998536859124 0.8929254058607694 0 0 0
281 0 3 2.656 9.297619941249057 7.546324653803347 0.8929254058607694 0 0 0
282 0 3 2.656 6.821697017855067 8.73409671885753 0.8929254058607694 0 0 0
283 0 3 2.656 10.974798146571016 4.510903876225943 3.2141629058654115 0 0 0
284 0 3 2.656 8.708195902628917 6.0612299931657105 3.2141629058654115 0 0 0
285 0 3 2.656 11.184118826020068 7.249002058224347 3.2141629058654115 0 0 0
286 0 3 2.656 9.297619941251963 4.576135332532529 5.535400405870054 0 0 0
287 0 3 2.656 11.9662158303924 5.763907397591167 5.535400405870054 0 0 0
288 0 3 2.656 9.603277103575639 7.481093197492306 5.535400405870054 0 0 0
289 0 3 2.656 8.402538740299777 5.995998536859124 7.856637905860769 0 0 0
290 0 3 2.656 6.1359364963602525 7.546324653803347 7.856637905860769 0 0 0
291 0 3 2.656 8.611859419753973 8.73409671885753 7.856637905860769 0 0 0
292 0 3 2.656 9.603277103575973 4.510903876225943 10.177875405865413 0 0 0
293 0 3 2.656 11.869879347517722 6.0612299931657105 10.177875405865413 0 0 0
294 0 3 2.656 9.393956424126307 7.249002058224347 10.177875405865413 0 0 0
295 0 3 2.656 11.280455308895013 4.576135332532529 12.499112905870057 0 0 0
296 0 3 2.656 8.611859419754309 5.763907397591167 12.499112905870057 0 0 0
297 0 3 2.656 10.974798146570684 7.481093197492306 12.499112905870057 0 0 0
298 0 1 1 15.433556437612905 5.940378642537182 1.6272754058698322 0 0 0
299 0 1 1 12.861297031341998 4.455283981904 3.9485129058605466 0 0 0
300 0 1 1 12.861297031339094 7.42547330317482 6.2697504058651905 0 0 0
301 0 1 1 15.433556437612905 5.940378642537182 8.590987905869834 0 0 0
302 0 1 1 12.861297031341998 4.455283981904 10.912225405860546 0 0 0
303 0 1 1 12.861297031339094 7.42547330317482 13.233462905865188 0 0 0
304 0 2 0.978 12.861297031341998 4.455283981904 0.01613290586773125 0 0 0
305 0 2 0.978 12.861297031339094 7.42547330317482 2.337370405858446 0 0 0
306 0 2 0.978 15.433556437612905 5.940378642537182 4.6586079058630885 0 0 0
307 0 2 0.978 12.861297031341998 4.455283981904 6.979845405867731 0 0 0
308 0 2 0.978 12.861297031339094 7.42547330317482 9.301082905858447 0 0 0
309 0 2 0.978 15.433556437612905 5.940378642537182 11.622320405863091 0 0 0
310 0 3 2.656 12.175536509846879 5.995998536859124 0.8929254058607694 0 0 0
311 0 3 2.656 14.442138753786056 7.546324653803347 0.8929254058607694 0 0 0
312 0 3 2.656 11.966215830392066 8.73409671885753 0.8929254058607694 0 0 0
313 0 3 2.656 16.119316959108016 4.510903876225943 3.2141629058654115 0 0 0
314 0 3 2.656 13.852714715165916 6.0612299931657105 3.2141629058654115 0 0 0
315 0 3 2.656 16.32863763855707 7.249002058224347 3.2141629058654115 0 0 0
316 0 3 2.656 14.44213875378896 4.576135332532529 5.535400405870054 0 0 0
317 0 3 2.656 17.1107346429294 5.763907397591167 5.535400405870054 0 0 0
318 0 3 2.656 14.74779591611264 7.481093197492306 5.535400405870054 0 0 0
319 0 3 2.656 13.547057552836776 5.995998536859124 7.856637905860769 0 0 0
320 0 3 2.656 11.280455308897253 7.546324653803347 7.856637905860769 0 0 0
321 0 3 2.656 13.756378232290974 8.73409671885753 7.856637905860769 0 0 0
322 0 3 2.656 14.747795916112974 4.510903876225943 10.177875405865413 0 0 0
323 0 3 2.656 17.014398160054725 6.0612299931657105 10.177875405865413 0 0 0
324 0 3 2.656 14.538475236663306 7.249002058224347 10.177875405865413 0 0 0
325 0 3 2.656 16.42497412143201 4.576135332532529 12.499112905870057 0 0 0
326 0 3 2.656 13.756378232291308 5.763907397591167 12.499112905870057 0 0 0
327 0 3 2.656 16.11931695910768 7.481093197492306 12.499112905870057 0 0 0
328 0 1 1 20.578075250149908 5.940378642537182 1.6272754058698322 0 0 0
329 0 1 1 18.005815843879 4.455283981904 3.9485129058605466 0 0 0
330 0 1 1 18.005815843876093 7.42547330317482 6.2697504058651905 0 0 0
331 0 1 1 20.578075250149908 5.940378642537182 8.590987905869834 0 0 0
332 0 1 1 18.005815843879 4.455283981904 10.912225405860546 0 0 0
333 0 1 1 18.005815843876093 7.42547330317482 13.233462905865188 0 0 0
334 0 2 0.978 18.005815843879 4.455283981904 0.01613290586773125 0 0 0
335 0 2 0.978 18.005815843876093 7.42547330317482 2.337370405858446 0 0 0
336 0 2 0.978 20.578075250149908 5.940378642537182 4.6586079058630885 0 0 0
337 0 2 0.978 18.005815843879 4.455283981904 6.979845405867731 0 0 0
338 0 2 0.978 18.005815843876093 7.42547330317482 9.301082905858447 0 0 0
339 0 2 0.978 20.578075250149908 5.940378642537182 11.622320405863091 0 0 0
340 0 3 2.656 17.320055322383876 5.995998536859124 0.8929254058607694 0 0 0
341 0 3 2.656 19.58665756632306 7.546324653803347 0.8929254058607694 0 0 0
342 0 3 2.656 17.110734642929067 8.73409671885753 0.8929254058607694 0 0 0
343 0 3 2.656 21.263835771645017 4.510903876225943 3.2141629058654115 0 0 0
344 0 3 2.656 18.997233527702917 6.0612299931657105 3.2141629058654115 0 0 0
345 0 3 2.656 21.47315645109407 7.249002058224347 3.2141629058654115 0 0 0
346 0 3 2.656 19.586657566325957 4.576135332532529 5.535400405870054 0 0 0
347 0 3 2.656 22.255253455466402 5.763907397591167 5.535400405870054 0 0 0
348 0 3 2.656 19.892314728649637 7.481093197492306 5.535400405870054 0 0 0
349 0 3 2.656 18.691576365373777 5.995998536859124 7.856637905860769 0 0 0
350 0 3 2.656 16.42497412143425 7.546324653803347 7.856637905860769 0 0 0
351 0 3 2.656 18.900897044827975 8.73409671885753 7.856637905860769 0 0 0
352 0 3 2.656 19.89231472864997 4.510903876225943 10.177875405865413 0 0 0
353 0 3 2.656 22.158916972591726 6.0612299931657105 10.177875405865413 0 0 0
354 0 3 2.656 19.682994049200307 7.249002058224347 10.177875405865413 0 0 0
355 0 3 2.656 21.569492933969006 4.576135332532529 12.499112905870057 0 0 0
356 0 3 2.656 18.90089704482831 5.763907397591167 12.499112905870057 0 0 0
357 0 3 2.656 21.263835771644683 7.481093197492306 12.499112905870057 0 0 0
358 0 1 1 25.72259406268691 5.940378642537182 1.6272754058698322 0 0 0
359 0 1 1 23.150334656416 4.455283981904 3.9485129058605466 0 0 0
360 0 1 1 23.150334656413094 7.42547330317482 6.2697504058651905 0 0 0
361 0 1 1 25.72259406268691 5.940378642537182 8.590987905869834 0 0 0
362 0 1 1 23.150334656416 4.455283981904 10.912225405860546 0 0 0
363 0 1 1 23.150334656413094 7.42547330317482 13.233462905865188 0 0 0
364 0 2 0.978 23.150334656416 4.455283981904 0.01613290586773125 0 0 0
365 0 2 0.978 23.150334656413094 7.42547330317482 2.337370405858446 0 0 0
366 0 2 0.978 25.72259406268691 5.940378642537182 4.6586079058630885 0 0 0
367 0 2 0.978 23.150334656416 4.455283981904 6.979845405867731 0 0 0
368 0 2 0.978 23.150334656413094 7.42547330317482 9.301082905858447 0 0 0
369 0 2 0.978 25.72259406268691 5.940378642537182 11.622320405863091 0 0 0
370 0 3 2.656 22.464574134920877 5.995998536859124 0.8929254058607694 0 0 0
371 0 3 2.656 24.731176378860056 7.546324653803347 0.8929254058607694 0 0 0
372 0 3 2.656 22.255253455466068 8.73409671885753 0.8929254058607694 0 0 0
373 0 3 2.656 26.408354584182018 4.510903876225943 3.2141629058654115 0 0 0
374 0 3 2.656 24.14175234023992 6.0612299931657105 3.2141629058654115 0 0 0
375 0 3 2.656 26.617675263631064 7.249002058224347 3.2141629058654115 0 0 0
376 0 3 2.656 24.731176378862962 4.576135332532529 5.535400405870054 0 0 0
377 0 3 2.656 27.399772268003403 5.763907397591167 5.535400405870054 0 0 0
378 0 3 2.656 25.03683354118664 7.481093197492306 5.535400405870054 0 0 0
379 0 3 2.656 23.836095177910778 5.995998536859124 7.856637905860769 0 0 0
380 0 3 2.656 21.56949293397125 7.546324653803347 7.856637905860769 0 0 0
381 0 3 2.656 24.045415857364972 8.73409671885753 7.856637905860769 0 0 0
382 0 3 2.656 25.036833541186972 4.510903876225943 10.177875405865413 0 0 0
383 0 3 2.656 27.303435785128723 6.0612299931657105 10.177875405865413 0 0 0
384 0 3 2.656 24.827512861737304 7.249002058224347 10.177875405865413 0 0 0
385 0 3 2.656 26.71401174650601 4.576135332532529 12.499112905870057 0 0 0
386 0 3 2.656 24.04541585736531 5.763907397591167 12.499112905870057 0 0 0
387 0 3 2.656 26.408354584181684 7.481093197492306 12.499112905870057 0 0 0
388 0 1 1 30.867112875223903 5.940378642537182 1.6272754058698322 0 0 0
389 0 1 1 28.294853468952997 4.455283981904 3.9485129058605466 0 0 0
390 0 1 1 28.294853468950095 7.42547330317482 6.2697504058651905 0 0 0
391 0 1 1 30.867112875223903 5.940378642537182 8.590987905869834 0 0 0
392 0 1 1 28.294853468952997 4.455283981904 10.912225405860546 0 0 0
393 0 1 1 28.294853468950095 7.42547330317482 13.233462905865188 0 0 0
394 0 2 0.978 28.294853468952997 4.455283981904 0.01613290586773125 0 0 0
395 0 2 0.978 28.294853468950095 7.42547330317482 2.337370405858446 0 0 0
396 0 2 0.978 30.867112875223903 5.940378642537182 4.6586079058630885 0 0 0
397 0 2 0.978 28.294853468952997 4.455283981904 6.979845405867731 0 0 0
398 0 2 0.978 28.294853468950095 7.42547330317482 9.301082905858447 0 0 0
399 0 2 0.978 30.867112875223903 5.940378642537182 11.622320405863091 0 0 0
400 0 3 2.656 27.60909294745788 5.995998536859124 0.8929254058607694 0 0 0
401 0 3 2.656 29.87569519139706 7.546324653803347 0.8929254058607694 0 0 0
402 0 3 2.656 27.399772268003062 8.73409671885753 0.8929254058607694 0 0 0
403 0 3 2.656 31.552873396719015 4.510903876225943 3.2141629058654115 0 0 0